LAMMPS data file. CGCMM style. atom_style full generated by VMD/TopoTools v1.5 on Tue Jul 11 13:27:55 EDT 2017
 194 atoms
 112 bonds
 58 angles
 2 dihedrals
 0 impropers
 7 atom types
 2 bond types
 4 angle types
 1 dihedral types
 0 improper types
 0.0000 8.4159  xlo xhi
 0.0000 7.288378  ylo yhi
 0.0000 35.80  zlo zhi
 4.207950 0.000000 0.000000 xy xz yz

##### You can skip this part if you define pair coeffs explicitly in data file
# Pair Coeffs
#
# 1  O
# 2  Pt
# 3  X

 Bond Coeffs

 1  450 0.9572    # H-O
 2  0.00  0.00    # adsorbate, keep frozen


 Angle Coeffs

 1  55.0 104.52  # H-O-H
 2  00.0 000.00  # Hh-Oc-C, adsorbate, keep frozen
 3  00.0 000.00  # Hc-C-Hc, adsorbate, keep frozen
 4  00.0 000.00  # Hc-C-Oc, adsorbate, keep frozen

 Dihedral Coeffs

 1  0.0000  0.0000  0.4500  0.0000  # HC-CT-OH-HO, adsorbate, keep frozen


 Masses

 1    1.007940 # H_w
 2   15.999400 # O_w
 3    1.007940 # H_h
 4    1.007940 # H_c
 5   12.010700 # C    
 6   15.999400 # O_c  
 7   195.084000 # Pt
 

# NOTE: a CH2OH* adsorbate on three layer 3Pt-3Pt(111) surface

 Atoms

1 1  7  0.00000  0.000000	0.000000	0.000000 # Pt 
2 1  7  0.00000  2.805297	0.000000	0.000000 # Pt 
3 1  7  0.00000  5.610603	0.000000	0.000000 # Pt 
4 1  7  0.00000  1.402649	2.429459	0.000000 # Pt 
5 1  7  0.00000  4.207946	2.429459	0.000000 # Pt 
6 1  7  0.00000  7.013251	2.429459	0.000000 # Pt 
7 1  7  0.00000  2.805301	4.858924	0.000000 # Pt 
8 1  7  0.00000  5.610599	4.858924	0.000000 # Pt 
9 1  7  0.00000  8.415904	4.858924	0.000000 # Pt 
10 1 7  0.00000  1.402649	0.809820	2.290533 # Pt 
11 1 7  0.00000  4.207946	0.809820	2.290533 # Pt 
12 1 7  0.00000  7.013251	0.809820	2.290533 # Pt 
13 1 7  0.00000  2.805301	3.239285	2.290533 # Pt 
14 1 7  0.00000  5.610599	3.239285	2.290533 # Pt 
15 1 7  0.00000  8.415904	3.239285	2.290533 # Pt 
16 1 7  0.00000  4.207950	5.668744	2.290533 # Pt 
17 1 7  0.00000  7.013247	5.668744	2.290533 # Pt 
18 1 7  0.00000  9.818553	5.668744	2.290533 # Pt 
19 1 7  0.00000  2.805297	1.619639	4.581028 # Pt 
20 1 7  0.00000  5.610603	1.619639	4.581028 # Pt 
21 1 7  0.00000  8.415900	1.619639	4.581028 # Pt 
22 1 7  0.00000  4.207950	4.049105	4.581028 # Pt 
23 1 7  0.00000  7.013256	4.049105	4.581028 # Pt 
24 1 7  0.00000  9.818553	4.049105	4.581028 # Pt 
25 1 7  0.00000  5.610599	6.478563	4.581028 # Pt 
26 1 7  0.00000  8.415904	6.478563	4.581028 # Pt 
27 1 7  0.00000  11.221202	6.478563	4.581028 # Pt 
28 1 2 -0.83400 6.455298 1.562993 15.956781 # O_w 
29 1 2 -0.83400 8.650391 1.738701 18.361694 # O_w 
30 1 2 -0.83400 10.297611 5.313931 11.608603 # O_w 
31 1 2 -0.83400 2.722598 4.646022 15.907991 # O_w 
32 1 2 -0.83400 3.221032 1.523462 23.988441 # O_w 
33 1 2 -0.83400 6.639317 4.657789 15.198557 # O_w 
34 1 2 -0.83400 8.262575 1.966944 10.986013 # O_w 
35 1 2 -0.83400 2.259593 1.053092 10.616975 # O_w 
36 1 2 -0.83400 4.449955 7.021489 20.490690 # O_w 
37 1 2 -0.83400 9.582163 6.310526 24.454693 # O_w 
38 1 2 -0.83400 4.562791 7.096468 14.320192 # O_w 
39 1 2 -0.83400 4.096568 4.764219 8.764997 # O_w 
40 1 2 -0.83400 8.169153 6.204535 18.353273 # O_w 
41 1 2 -0.83400 7.149612 5.207557 21.357117 # O_w 
42 1 2 -0.83400 4.172545 1.825866 31.340149 # O_w 
43 1 2 -0.83400 4.113795 6.730297 10.178232 # O_w 
44 1 2 -0.83400 8.952699 5.486395 31.163391 # O_w 
45 1 2 -0.83400 0.750609 0.094379 26.664700 # O_w 
46 1 2 -0.83400 8.380264 0.575153 23.426043 # O_w 
47 1 2 -0.83400 6.558212 3.880319 28.881784 # O_w 
48 1 2 -0.83400 6.085113 0.250887 29.896437 # O_w 
49 1 2 -0.83400 10.646664 3.897716 19.798326 # O_w 
50 1 2 -0.83400 6.849793 1.919920 27.113453 # O_w 
51 1 2 -0.83400 2.490132 3.701266 27.408113 # O_w 
52 1 2 -0.83400 4.523444 0.915052 26.208969 # O_w 
53 1 2 -0.83400 4.082016 0.368643 20.775728 # O_w 
54 1 2 -0.83400 2.761678 0.164572 30.210567 # O_w 
55 1 2 -0.83400 3.601706 3.001500 13.509024 # O_w 
56 1 2 -0.83400 5.761760 3.990634 10.464463 # O_w 
57 1 2 -0.83400 8.099549 6.567327 14.288568 # O_w 
58 1 2 -0.83400 6.819955 0.043382 18.266140 # O_w 
59 1 2 -0.83400 7.083951 2.914379 20.421028 # O_w 
60 1 2 -0.83400 8.158191 3.174859 13.781300 # O_w 
61 1 2 -0.83400 4.941255 6.187374 18.114090 # O_w 
62 1 2 -0.83400 4.971834 0.915234 12.533688 # O_w 
63 1 2 -0.83400 0.369141 0.469808 30.264317 # O_w 
64 1 2 -0.83400 3.104876 4.553311 25.111898 # O_w 
65 1 2 -0.83400 5.966011 2.038175 24.474831 # O_w 
66 1 2 -0.83400 3.290093 4.485462 30.808907 # O_w 
67 1 2 -0.83400 4.648815 0.035135 8.294909 # O_w 
68 1 2 -0.83400 9.353737 3.043417 8.707829 # O_w 
69 1 2 -0.83400 4.055291 1.950173 17.639221 # O_w 
70 1 2 -0.83400 7.877478 3.941524 24.823812 # O_w 
71 1 2 -0.83400 8.080184 6.098444 27.641226 # O_w 
72 1 2 -0.83400 11.716867 5.799525 22.361300 # O_w 
73 1 2 -0.83400 4.977538 3.784508 27.060104 # O_w 
74 1 2 -0.83400 9.243210 3.160432 29.212170 # O_w 
75 1 2 -0.83400 4.200062 0.255724 14.986453 # O_w 
76 1 2 -0.83400 3.977986 2.370477 8.164072 # O_w 
77 1 2 -0.83400 8.271380 2.946071 31.517136 # O_w 
78 1 2 -0.83400 10.104863 3.712178 22.498404 # O_w 
79 1 2 -0.83400 3.660550 6.165837 28.343826 # O_w 
80 1 2 -0.83400 5.002419 5.415248 12.509007 # O_w 
81 1 2 -0.83400 1.781330 1.896183 15.618613 # O_w 
82 1 1 0.417000 6.169293 1.668855 15.049463 # H_w 
83 1 1 0.417000 6.880522 2.392916 16.172756 # H_w 
84 1 1 0.417000 8.626389 1.747763 17.404839 # H_w 
85 1 1 0.417000 7.984546 2.374171 18.624489 # H_w 
86 1 1 0.417000 9.801661 4.835994 12.273316 # H_w 
87 1 1 0.417000 9.658472 5.905634 11.211590 # H_w 
88 1 1 0.417000 3.578491 4.347235 15.600737 # H_w 
89 1 1 0.417000 2.667979 4.330701 16.810114 # H_w 
90 1 1 0.417000 3.459476 1.561629 24.914680 # H_w 
91 1 1 0.417000 2.676664 2.298286 23.848642 # H_w 
92 1 1 0.417000 6.523108 4.152960 14.393650 # H_w 
93 1 1 0.417000 7.006719 4.032386 15.823153 # H_w 
94 1 1 0.417000 8.825119 1.942324 11.760076 # H_w 
95 1 1 0.417000 7.431901 1.593909 11.281068 # H_w 
96 1 1 0.417000 2.114777 0.443861 9.893028 # H_w 
97 1 1 0.417000 2.774750 1.763032 10.233790 # H_w 
98 1 1 0.417000 4.927573 6.673747 21.243811 # H_w 
99 1 1 0.417000 12.043355 6.531960 20.481258 # H_w 
100 1 1 0.417000 10.402651 5.843222 24.297668 # H_w 
101 1 1 0.417000 9.535834 6.400934 25.406488 # H_w 
102 1 1 0.417000 1.175888 0.122185 14.698952 # H_w 
103 1 1 0.417000 12.360766 7.098850 15.051215 # H_w 
104 1 1 0.417000 3.700587 5.442050 8.217295 # H_w 
105 1 1 0.417000 3.373334 4.174115 8.976995 # H_w 
106 1 1 0.417000 7.765993 6.368456 19.205812 # H_w 
107 1 1 0.417000 7.521881 6.511936 17.718628 # H_w 
108 1 1 0.417000 7.991024 4.752307 21.388832 # H_w 
109 1 1 0.417000 6.905268 5.324500 22.275187 # H_w 
110 1 1 0.417000 4.336405 1.372948 30.512959 # H_w 
111 1 1 0.417000 3.250031 2.077586 31.297287 # H_w 
112 1 1 0.417000 0.220426 0.253411 10.576667 # H_w 
113 1 1 0.417000 4.194300 6.075493 10.871761 # H_w 
114 1 1 0.417000 8.488310 4.682913 31.397896 # H_w 
115 1 1 0.417000 9.069972 5.427780 30.215214 # H_w 
116 1 1 0.417000 5.365295 7.106478 27.485960 # H_w 
117 1 1 0.417000 8.389723 0.584311 26.934515 # H_w 
118 1 1 0.417000 7.485428 0.776875 23.152527 # H_w 
119 1 1 0.417000 8.381767 0.724927 24.371450 # H_w 
120 1 1 0.417000 6.073105 4.544818 28.392555 # H_w 
121 1 1 0.417000 6.153984 3.878321 29.749439 # H_w 
122 1 1 0.417000 6.485951 0.193075 29.029133 # H_w 
123 1 1 0.417000 6.825418 0.327904 30.498306 # H_w 
124 1 1 0.417000 2.364311 3.572566 20.688650 # H_w 
125 1 1 0.417000 3.114421 3.997102 19.444061 # H_w 
126 1 1 0.417000 7.646275 1.419541 26.936054 # H_w 
127 1 1 0.417000 6.614017 1.685483 28.011049 # H_w 
128 1 1 0.417000 10.881290 4.518001 27.906675 # H_w 
129 1 1 0.417000 10.475738 3.912699 26.579636 # H_w 
130 1 1 0.417000 5.298954 0.958785 26.768347 # H_w 
131 1 1 0.417000 4.858782 0.643137 25.354660 # H_w 
132 1 1 0.417000 8.033446 7.257963 21.607101 # H_w 
133 1 1 0.417000 4.167678 1.301262 20.973505 # H_w 
134 1 1 0.417000 2.296528 0.393645 31.015175 # H_w 
135 1 1 0.417000 6.352808 6.905934 29.724215 # H_w 
136 1 1 0.417000 3.620967 2.871640 12.560869 # H_w 
137 1 1 0.417000 2.677707 2.916762 13.744137 # H_w 
138 1 1 0.417000 5.832774 3.946561 9.510920 # H_w 
139 1 1 0.417000 5.943619 3.098596 10.760145 # H_w 
140 1 1 0.417000 8.031149 6.659305 13.338255 # H_w 
141 1 1 0.417000 8.837139 7.127005 14.531375 # H_w 
142 1 1 0.417000 11.311854 6.838265 19.035599 # H_w 
143 1 1 0.417000 6.122552 0.613210 18.590416 # H_w 
144 1 1 0.417000 7.878129 2.736661 20.924940 # H_w 
145 1 1 0.417000 6.741426 2.048427 20.199593 # H_w 
146 1 1 0.417000 9.025129 3.248597 13.382286 # H_w 
147 1 1 0.417000 7.875258 2.283420 13.577541 # H_w 
148 1 1 0.417000 5.344046 6.810249 17.509096 # H_w 
149 1 1 0.417000 5.617952 6.017495 18.769419 # H_w 
150 1 1 0.417000 5.184648 0.343703 13.271451 # H_w 
151 1 1 0.417000 5.020952 0.345032 11.766427 # H_w 
152 1 1 0.417000 0.263669 0.208774 31.179176 # H_w 
153 1 1 0.417000 8.644367 1.416611 30.267155 # H_w 
154 1 1 0.417000 3.015359 4.502322 24.160257 # H_w 
155 1 1 0.417000 10.706913 4.179635 25.449867 # H_w 
156 1 1 0.417000 5.457697 2.490551 23.801624 # H_w 
157 1 1 0.417000 6.869890 2.310576 24.316616 # H_w 
158 1 1 0.417000 3.141315 4.550639 31.752224 # H_w 
159 1 1 0.417000 3.471615 3.557807 30.658110 # H_w 
160 1 1 0.417000 4.908814 0.906437 8.594016 # H_w 
161 1 1 0.417000 9.354726 6.721445 8.847883 # H_w 
162 1 1 0.417000 8.841401 3.050817 7.899317 # H_w 
163 1 1 0.417000 8.933813 3.699550 9.264052 # H_w 
164 1 1 0.417000 4.212923 1.702863 18.550385 # H_w 
165 1 1 0.417000 4.286746 1.169965 17.135302 # H_w 
166 1 1 0.417000 7.410021 3.310852 24.276117 # H_w 
167 1 1 0.417000 7.483816 3.844537 25.690908 # H_w 
168 1 1 0.417000 7.911062 5.943268 28.570501 # H_w 
169 1 1 0.417000 8.796003 5.501046 27.424547 # H_w 
170 1 1 0.417000 3.452429 5.370162 23.203283 # H_w 
171 1 1 0.417000 10.942139 5.364061 22.005774 # H_w 
172 1 1 0.417000 4.772930 3.773665 26.125093 # H_w 
173 1 1 0.417000 4.326838 3.204034 27.454910 # H_w 
174 1 1 0.417000 9.053771 2.794895 28.348036 # H_w 
175 1 1 0.417000 9.936153 3.801756 29.054806 # H_w 
176 1 1 0.417000 3.806693 0.023274 14.145347 # H_w 
177 1 1 0.417000 3.458139 0.325806 15.587179 # H_w 
178 1 1 0.417000 4.771129 2.735549 8.556346 # H_w 
179 1 1 0.417000 3.791950 1.587908 8.682924 # H_w 
180 1 1 0.417000 8.541350 2.418982 30.765121 # H_w 
181 1 1 0.417000 7.574569 3.508194 31.178459 # H_w 
182 1 1 0.417000 9.795958 3.372852 23.338444 # H_w 
183 1 1 0.417000 9.384051 4.255102 22.179192 # H_w 
184 1 1 0.417000 3.681849 6.174340 27.386902 # H_w 
185 1 1 0.417000 11.195841 5.860307 28.561567 # H_w 
186 1 1 0.417000 4.854592 5.228336 13.436069 # H_w 
187 1 1 0.417000 4.284519 4.971615 12.057299 # H_w 
188 1 1 0.417000 2.147171 1.741324 16.489481 # H_w 
189 1 1 0.417000 10.029763 2.838264 15.592710 # H_w 
190 1 5  0.200000 7.051610841 4.048811918 6.74743846  # C
191 1 6 -0.660000 8.199040939 4.567442117 7.271688928 # O
192 1 4  0.030000 6.128231975 4.567686266 7.048039662 # Hc
193 1 4  0.030000 7.019012571 2.956462894 6.889116084 # Hc
194 1 3  0.400000 8.065432352 5.402729884 7.81622476  # Hh


 Bonds 

1 1 28 82 
2 1 28 83 
3 1 29 84 
4 1 29 85 
5 1 30 86 
6 1 30 87 
7 1 31 88 
8 1 31 89 
9 1 32 90 
10 1 32 91 
11 1 33 92 
12 1 33 93 
13 1 34 94 
14 1 34 95 
15 1 35 96 
16 1 35 97 
17 1 36 98 
18 1 36 99 
19 1 37 100 
20 1 37 101 
21 1 38 102 
22 1 38 103 
23 1 39 104 
24 1 39 105 
25 1 40 106 
26 1 40 107 
27 1 41 108 
28 1 41 109 
29 1 42 110 
30 1 42 111 
31 1 43 112 
32 1 43 113 
33 1 44 114 
34 1 44 115 
35 1 45 116 
36 1 45 117 
37 1 46 118 
38 1 46 119 
39 1 47 120 
40 1 47 121 
41 1 48 122 
42 1 48 123 
43 1 49 124 
44 1 49 125 
45 1 50 126 
46 1 50 127 
47 1 51 128 
48 1 51 129 
49 1 52 130 
50 1 52 131 
51 1 53 132 
52 1 53 133 
53 1 54 134 
54 1 54 135 
55 1 55 136 
56 1 55 137 
57 1 56 138 
58 1 56 139 
59 1 57 140 
60 1 57 141 
61 1 58 142 
62 1 58 143 
63 1 59 144 
64 1 59 145 
65 1 60 146 
66 1 60 147 
67 1 61 148 
68 1 61 149 
69 1 62 150 
70 1 62 151 
71 1 63 152 
72 1 63 153 
73 1 64 154 
74 1 64 155 
75 1 65 156 
76 1 65 157 
77 1 66 158 
78 1 66 159 
79 1 67 160 
80 1 67 161 
81 1 68 162 
82 1 68 163 
83 1 69 164 
84 1 69 165 
85 1 70 166 
86 1 70 167 
87 1 71 168 
88 1 71 169 
89 1 72 170 
90 1 72 171 
91 1 73 172 
92 1 73 173 
93 1 74 174 
94 1 74 175 
95 1 75 176 
96 1 75 177 
97 1 76 178 
98 1 76 179 
99 1 77 180 
100 1 77 181 
101 1 78 182 
102 1 78 183 
103 1 79 184 
104 1 79 185 
105 1 80 186 
106 1 80 187 
107 1 81 188 
108 1 81 189 
109 2 190 192
110 2 190 193
111 2 190 191
112 2 191 194

 Angles 

1 1 82 28 83 
2 1 84 29 85 
3 1 86 30 87 
4 1 88 31 89 
5 1 90 32 91 
6 1 92 33 93 
7 1 94 34 95 
8 1 96 35 97 
9 1 98 36 99 
10 1 100 37 101 
11 1 102 38 103 
12 1 104 39 105 
13 1 106 40 107 
14 1 108 41 109 
15 1 110 42 111 
16 1 112 43 113 
17 1 114 44 115 
18 1 116 45 117 
19 1 118 46 119 
20 1 120 47 121 
21 1 122 48 123 
22 1 124 49 125 
23 1 126 50 127 
24 1 128 51 129 
25 1 130 52 131 
26 1 132 53 133 
27 1 134 54 135 
28 1 136 55 137 
29 1 138 56 139 
30 1 140 57 141 
31 1 142 58 143 
32 1 144 59 145 
33 1 146 60 147 
34 1 148 61 149 
35 1 150 62 151 
36 1 152 63 153 
37 1 154 64 155 
38 1 156 65 157 
39 1 158 66 159 
40 1 160 67 161 
41 1 162 68 163 
42 1 164 69 165 
43 1 166 70 167 
44 1 168 71 169 
45 1 170 72 171 
46 1 172 73 173 
47 1 174 74 175 
48 1 176 75 177 
49 1 178 76 179 
50 1 180 77 181 
51 1 182 78 183 
52 1 184 79 185 
53 1 186 80 187 
54 1 188 81 189 
55 2 194 191 190
56 3 192 190 193
57 4 192 190 191
58 4 193 190 191

Dihedrals
1 1 192 190 191 194
2 1 193 190 191 194


