LAMMPS data file. CGCMM style. atom_style full generated by VMD/TopoTools v1.2 on Tue Jun 05 16:14:31 -0400 2018
 174 atoms
 96 bonds
 48 angles
 0 dihedrals
 0 impropers
 6 atom types
 1 bond types
 1 angle types
 0 dihedral types
 0 improper types
 0.000000  8.415900  xlo xhi
 0.000000  7.288383  ylo yhi
 0.000000 34.000000  zlo zhi
 4.207950 0.000000 0.000000 xy xz yz

 Pair Coeffs

 1  0.0800 2.7540  # Pt     (UFF)         
 2  0.0700 3.5500  # C_COH  (OPLS-AA)     
 3  0.1700 3.0700  # O_COH  (OPLS-AA)     
 4  0.0000 0.0000  # H_COH  (OPLS-AA)     
 5  0.1521 3.1507  # O_H2O  (TIP3P/CHARMM)
 6  0.0000 0.0000  # H_H2O  (TIP3P/CHARMM)

 Bond Coeffs # harmonic

 1 450 0.9572

 Angle Coeffs # harmonic

 1 55 104.52

 Masses

 1 195.0840  # Pt     (UFF)         
 2  12.0107  # C_COH  (OPLS-AA)     
 3  15.9994  # O_COH  (OPLS-AA)     
 4   1.0080  # H_COH  (OPLS-AA)     
 5  15.9994  # O_H2O  (TIP3P/CHARMM)
 6   1.0080  # H_H2O  (TIP3P/CHARMM)

 Atoms

1 1 1 0.000000 0.000000 0.000000 0.000000 # Pt 
2 1 1 0.000000 2.805301 4.858921 0.000000 # Pt 
3 1 1 0.000000 1.402647 2.429456 0.000000 # Pt 
4 1 1 0.000000 2.805314 0.000000 0.000000 # Pt 
5 1 1 0.000000 5.610614 4.858921 0.000000 # Pt 
6 1 1 0.000000 4.207961 2.429456 0.000000 # Pt 
7 1 1 0.000000 5.610636 0.000000 0.000000 # Pt 
8 1 1 0.000000 8.415936 4.858921 0.000000 # Pt 
9 1 1 0.000000 7.013283 2.429456 0.000000 # Pt 
10 1 1 0.000000 4.207954 5.668740 2.290518 # Pt 
11 1 1 0.000000 2.805306 3.239282 2.290518 # Pt 
12 1 1 0.000000 1.402653 0.809817 2.290518 # Pt 
13 1 1 0.000000 7.013268 5.668740 2.290518 # Pt 
14 1 1 0.000000 5.610620 3.239282 2.290518 # Pt 
15 1 1 0.000000 4.207967 0.809817 2.290518 # Pt 
16 1 1 0.000000 9.818591 5.668740 2.290518 # Pt 
17 1 1 0.000000 8.415942 3.239282 2.290518 # Pt 
18 1 1 0.000000 7.013289 0.809817 2.290518 # Pt 
19 1 1 0.000000 5.610609 6.478559 4.581039 # Pt 
20 1 1 0.000000 4.207960 4.049101 4.581039 # Pt 
21 1 1 0.000000 2.805307 1.619636 4.581039 # Pt 
22 1 1 0.000000 8.415931 6.478559 4.581039 # Pt 
23 1 1 0.000000 7.013282 4.049101 4.581039 # Pt 
24 1 1 0.000000 5.610630 1.619636 4.581039 # Pt 
25 1 1 0.000000 11.221245 6.478559 4.581039 # Pt 
26 1 1 0.000000 9.818596 4.049101 4.581039 # Pt 
27 1 1 0.000000 8.415943 1.619636 4.581039 # Pt 
28 1 2 0.150000 8.434365 4.829908 5.781020 # C_COH 
29 1 3 -0.585000 8.457958 4.817775 7.115736 # O_COH 
30 1 5 -0.834000 1.458823 1.394003 7.063081 # O_H2O 
31 1 5 -0.834000 5.273203 6.961463 9.487731 # O_H2O 
32 1 5 -0.834000 3.031336 0.998084 10.085731 # O_H2O 
33 1 5 -0.834000 3.792260 5.019018 10.316637 # O_H2O 
34 1 5 -0.834000 5.591793 1.299037 10.481505 # O_H2O 
35 1 5 -0.834000 6.516033 6.711793 7.196363 # O_H2O 
36 1 5 -0.834000 10.173949 4.923479 10.500616 # O_H2O 
37 1 5 -0.834000 8.747937 2.892226 10.603856 # O_H2O 
38 1 5 -0.834000 4.824535 0.010474 12.591991 # O_H2O 
39 1 5 -0.834000 5.626247 0.123080 14.456006 # O_H2O 
40 1 5 -0.834000 4.390020 0.592653 8.507481 # O_H2O 
41 1 5 -0.834000 8.945574 4.105993 13.289856 # O_H2O 
42 1 5 -0.834000 5.414240 1.024963 6.851196 # O_H2O 
43 1 5 -0.834000 2.538399 4.387955 13.815709 # O_H2O 
44 1 5 -0.834000 9.984319 5.783310 12.143097 # O_H2O 
45 1 5 -0.834000 9.606204 4.661918 8.177384 # O_H2O 
46 1 5 -0.834000 7.217859 6.686168 10.204865 # O_H2O 
47 1 5 -0.834000 5.875113 2.562056 13.143392 # O_H2O 
48 1 5 -0.834000 6.327400 4.199585 8.893298 # O_H2O 
49 1 5 -0.834000 3.990566 3.907279 14.469115 # O_H2O 
50 1 5 -0.834000 8.295512 1.200155 8.133529 # O_H2O 
51 1 5 -0.834000 3.231780 2.279540 12.248522 # O_H2O 
52 1 5 -0.834000 4.012023 3.378080 12.798809 # O_H2O 
53 1 5 -0.834000 8.056745 2.749448 13.103644 # O_H2O 
54 1 5 -0.834000 4.332552 0.043147 14.515743 # O_H2O 
55 1 5 -0.834000 7.626275 6.792957 12.481106 # O_H2O 
56 1 5 -0.834000 11.404884 6.464309 16.149668 # O_H2O 
57 1 5 -0.834000 8.185548 0.873054 14.072693 # O_H2O 
58 1 5 -0.834000 6.527174 6.957367 16.134382 # O_H2O 
59 1 5 -0.834000 9.348528 1.753841 17.765371 # O_H2O 
60 1 5 -0.834000 5.105784 6.063737 15.669374 # O_H2O 
61 1 5 -0.834000 11.440287 5.322565 7.210766 # O_H2O 
62 1 5 -0.834000 2.831768 2.435277 19.271141 # O_H2O 
63 1 5 -0.834000 4.039353 6.515022 13.817341 # O_H2O 
64 1 5 -0.834000 3.950625 0.326993 15.817112 # O_H2O 
65 1 5 -0.834000 8.066990 2.902298 8.677448 # O_H2O 
66 1 5 -0.834000 3.589935 5.968710 8.812262 # O_H2O 
67 1 5 -0.834000 4.732604 1.192872 20.636501 # O_H2O 
68 1 5 -0.834000 4.829125 5.634337 11.766013 # O_H2O 
69 1 5 -0.834000 2.815730 1.169899 16.466753 # O_H2O 
70 1 5 -0.834000 3.291017 2.733213 17.825775 # O_H2O 
71 1 5 -0.834000 2.778110 3.451746 10.315557 # O_H2O 
72 1 5 -0.834000 9.937522 5.905406 20.894159 # O_H2O 
73 1 5 -0.834000 3.816435 0.012565 20.527695 # O_H2O 
74 1 5 -0.834000 5.178443 3.202263 20.358438 # O_H2O 
75 1 5 -0.834000 0.595413 0.261013 11.827202 # O_H2O 
76 1 5 -0.834000 10.399886 3.578758 16.463182 # O_H2O 
77 1 5 -0.834000 8.966059 6.021398 16.570456 # O_H2O 
78 1 4 0.435000 7.576066 5.079654 7.458497 # H_COH 
79 1 6 0.417000 9.394641 2.188654 7.307217 # H_H2O 
80 1 6 0.417000 1.421605 1.277207 6.110940 # H_H2O 
81 1 6 0.417000 4.926653 7.256029 8.642312 # H_H2O 
82 1 6 0.417000 1.718406 0.302159 9.802779 # H_H2O 
83 1 6 0.417000 3.013500 1.957908 10.090225 # H_H2O 
84 1 6 0.417000 3.029910 0.682042 9.179245 # H_H2O 
85 1 6 0.417000 3.702781 5.050191 9.361325 # H_H2O 
86 1 6 0.417000 3.984303 5.898885 10.649135 # H_H2O 
87 1 6 0.417000 5.209539 0.857948 9.719322 # H_H2O 
88 1 6 0.417000 4.925083 1.846935 10.902106 # H_H2O 
89 1 6 0.417000 6.629710 7.087804 6.320411 # H_H2O 
90 1 6 0.417000 5.597514 6.461933 7.320833 # H_H2O 
91 1 6 0.417000 10.747991 4.745486 9.752021 # H_H2O 
92 1 6 0.417000 9.437204 4.308058 10.492619 # H_H2O 
93 1 6 0.417000 8.708333 3.475536 11.365289 # H_H2O 
94 1 6 0.417000 9.632486 2.911617 10.231303 # H_H2O 
95 1 6 0.417000 4.652778 0.025517 11.647602 # H_H2O 
96 1 6 0.417000 5.578116 0.571508 12.789369 # H_H2O 
97 1 6 0.417000 9.935498 6.484105 14.682611 # H_H2O 
98 1 6 0.417000 5.252126 0.198435 13.575123 # H_H2O 
99 1 6 0.417000 5.068005 0.859550 7.882419 # H_H2O 
100 1 6 0.417000 3.533566 0.601035 8.073874 # H_H2O 
101 1 6 0.417000 8.323678 3.695305 12.684727 # H_H2O 
102 1 6 0.417000 9.221721 4.955281 12.937646 # H_H2O 
103 1 6 0.417000 4.696547 1.601562 6.579075 # H_H2O 
104 1 6 0.417000 5.462710 0.272036 6.257604 # H_H2O 
105 1 6 0.417000 10.343805 4.831611 14.409011 # H_H2O 
106 1 6 0.417000 10.487793 4.113132 13.022994 # H_H2O 
107 1 6 0.417000 9.360403 5.829474 11.414951 # H_H2O 
108 1 6 0.417000 9.879553 4.946621 12.601980 # H_H2O 
109 1 6 0.417000 10.312423 4.206066 8.641125 # H_H2O 
110 1 6 0.417000 9.866592 5.570924 8.011534 # H_H2O 
111 1 6 0.417000 3.555612 0.047048 9.755120 # H_H2O 
112 1 6 0.417000 6.864578 6.065355 9.563472 # H_H2O 
113 1 6 0.417000 6.404383 2.994916 12.469519 # H_H2O 
114 1 6 0.417000 6.203671 1.671283 13.285422 # H_H2O 
115 1 6 0.417000 7.265380 3.995303 8.901137 # H_H2O 
116 1 6 0.417000 6.005919 4.262853 9.795654 # H_H2O 
117 1 6 0.417000 3.594952 4.636538 13.986135 # H_H2O 
118 1 6 0.417000 3.617850 3.078526 14.159516 # H_H2O 
119 1 6 0.417000 8.757653 1.756393 7.502161 # H_H2O 
120 1 6 0.417000 7.378169 1.106556 7.866470 # H_H2O 
121 1 6 0.417000 2.861870 3.164500 12.208380 # H_H2O 
122 1 6 0.417000 3.286530 1.914867 11.362172 # H_H2O 
123 1 6 0.417000 4.566205 3.280648 13.576619 # H_H2O 
124 1 6 0.417000 3.108349 3.555783 13.069722 # H_H2O 
125 1 6 0.417000 8.756100 2.417860 13.671579 # H_H2O 
126 1 6 0.417000 8.393499 2.858283 12.211260 # H_H2O 
127 1 6 0.417000 9.297313 6.741744 14.484226 # H_H2O 
128 1 6 0.417000 4.046862 0.245514 13.621859 # H_H2O 
129 1 6 0.417000 8.069920 6.335904 11.762857 # H_H2O 
130 1 6 0.417000 6.701512 6.536047 12.501365 # H_H2O 
131 1 6 0.417000 11.055161 6.205769 15.293834 # H_H2O 
132 1 6 0.417000 7.268940 0.132354 16.190491 # H_H2O 
133 1 6 0.417000 8.189589 0.889918 13.112849 # H_H2O 
134 1 6 0.417000 7.463728 1.415105 14.399431 # H_H2O 
135 1 6 0.417000 6.945537 6.099333 16.032654 # H_H2O 
136 1 6 0.417000 6.142889 7.227511 15.297154 # H_H2O 
137 1 6 0.417000 8.667994 1.141601 17.476173 # H_H2O 
138 1 6 0.417000 1.711920 1.649835 17.214546 # H_H2O 
139 1 6 0.417000 5.729262 5.621932 15.088268 # H_H2O 
140 1 6 0.417000 5.358783 6.984329 15.769890 # H_H2O 
141 1 6 0.417000 11.071333 5.378322 8.095281 # H_H2O 
142 1 6 0.417000 10.735090 5.401082 6.564133 # H_H2O 
143 1 6 0.417000 2.516968 3.138764 18.698771 # H_H2O 
144 1 6 0.417000 2.888620 1.617401 18.771696 # H_H2O 
145 1 6 0.417000 11.529032 6.293819 13.696136 # H_H2O 
146 1 6 0.417000 4.221997 6.627119 14.753116 # H_H2O 
147 1 6 0.417000 7.776439 7.221138 15.029614 # H_H2O 
148 1 6 0.417000 9.027855 7.239367 15.973867 # H_H2O 
149 1 6 0.417000 8.492804 2.310533 9.302026 # H_H2O 
150 1 6 0.417000 7.895923 3.746346 9.101617 # H_H2O 
151 1 6 0.417000 11.617479 6.813809 9.050062 # H_H2O 
152 1 6 0.417000 3.815623 5.971260 7.879170 # H_H2O 
153 1 6 0.417000 4.203720 1.991388 20.701735 # H_H2O 
154 1 6 0.417000 4.783084 0.916339 19.718580 # H_H2O 
155 1 6 0.417000 4.892028 5.413089 10.833978 # H_H2O 
156 1 6 0.417000 5.009074 4.852697 12.293514 # H_H2O 
157 1 6 0.417000 2.394116 1.009442 17.314157 # H_H2O 
158 1 6 0.417000 2.914494 2.115271 16.332151 # H_H2O 
159 1 6 0.417000 2.946058 3.497421 18.293310 # H_H2O 
160 1 6 0.417000 2.569202 2.267084 17.397633 # H_H2O 
161 1 6 0.417000 3.106761 3.876880 11.111075 # H_H2O 
162 1 6 0.417000 1.932433 3.036673 10.500342 # H_H2O 
163 1 6 0.417000 10.023998 6.443551 21.684427 # H_H2O 
164 1 6 0.417000 9.180689 6.204050 20.384636 # H_H2O 
165 1 6 0.417000 7.942485 7.061544 19.601639 # H_H2O 
166 1 6 0.417000 3.117811 0.627743 20.762384 # H_H2O 
167 1 6 0.417000 5.125251 2.269860 20.136187 # H_H2O 
168 1 6 0.417000 5.087870 3.310773 21.307976 # H_H2O 
169 1 6 0.417000 0.453386 0.465282 10.900001 # H_H2O 
170 1 6 0.417000 4.109443 6.962074 12.135634 # H_H2O 
171 1 6 0.417000 1.883727 2.626239 16.528494 # H_H2O 
172 1 6 0.417000 10.238095 3.977344 17.321409 # H_H2O 
173 1 6 0.417000 8.389451 5.533650 17.163097 # H_H2O 
174 1 6 0.417000 8.631204 5.957088 15.673050 # H_H2O 

 Bonds 
 
1 1 30 79
2 1 30 80
3 1 31 81
4 1 31 82
5 1 32 83
6 1 32 84
7 1 33 85
8 1 33 86
9 1 34 87
10 1 34 88
11 1 35 89
12 1 35 90
13 1 36 91
14 1 36 92
15 1 37 93
16 1 37 94
17 1 38 95
18 1 38 96
19 1 39 97
20 1 39 98
21 1 40 99
22 1 40 100
23 1 41 101
24 1 41 102
25 1 42 103
26 1 42 104
27 1 43 105
28 1 43 106
29 1 44 107
30 1 44 108
31 1 45 109
32 1 45 110
33 1 46 111
34 1 46 112
35 1 47 113
36 1 47 114
37 1 48 115
38 1 48 116
39 1 49 117
40 1 49 118
41 1 50 119
42 1 50 120
43 1 51 121
44 1 51 122
45 1 52 123
46 1 52 124
47 1 53 125
48 1 53 126
49 1 54 127
50 1 54 128
51 1 55 129
52 1 55 130
53 1 56 131
54 1 56 132
55 1 57 133
56 1 57 134
57 1 58 135
58 1 58 136
59 1 59 137
60 1 59 138
61 1 60 139
62 1 60 140
63 1 61 141
64 1 61 142
65 1 62 143
66 1 62 144
67 1 63 145
68 1 63 146
69 1 64 147
70 1 64 148
71 1 65 149
72 1 65 150
73 1 66 151
74 1 66 152
75 1 67 153
76 1 67 154
77 1 68 155
78 1 68 156
79 1 69 157
80 1 69 158
81 1 70 159
82 1 70 160
83 1 71 161
84 1 71 162
85 1 72 163
86 1 72 164
87 1 73 165
88 1 73 166
89 1 74 167
90 1 74 168
91 1 75 169
92 1 75 170
93 1 76 171
94 1 76 172
95 1 77 173
96 1 77 174
 
 Angles 
 
1 1 79 30 80
2 1 81 31 82
3 1 83 32 84
4 1 85 33 86
5 1 87 34 88
6 1 89 35 90
7 1 91 36 92
8 1 93 37 94
9 1 95 38 96
10 1 97 39 98
11 1 99 40 100
12 1 101 41 102
13 1 103 42 104
14 1 105 43 106
15 1 107 44 108
16 1 109 45 110
17 1 111 46 112
18 1 113 47 114
19 1 115 48 116
20 1 117 49 118
21 1 119 50 120
22 1 121 51 122
23 1 123 52 124
24 1 125 53 126
25 1 127 54 128
26 1 129 55 130
27 1 131 56 132
28 1 133 57 134
29 1 135 58 136
30 1 137 59 138
31 1 139 60 140
32 1 141 61 142
33 1 143 62 144
34 1 145 63 146
35 1 147 64 148
36 1 149 65 150
37 1 151 66 152
38 1 153 67 154
39 1 155 68 156
40 1 157 69 158
41 1 159 70 160
42 1 161 71 162
43 1 163 72 164
44 1 165 73 166
45 1 167 74 168
46 1 169 75 170
47 1 171 76 172
48 1 173 77 174
