LAMMPS data file. CGCMM style. atom_style full generated by VMD/TopoTools v1.7 on Tue Jan 08 16:44:26 -0500 2019
 104 atoms
 48 bonds
 24 angles
 0 dihedrals
 0 impropers
 7 atom types
 1 bond types
 0 angle types
 0 dihedral types
 0 improper types
 0.000000  8.415900  xlo xhi
 0.000000  7.288383  ylo yhi
 0.000000 24.524200  zlo zhi
 4.207950 0.000000 0.000000 xy xz yz

 Pair Coeffs

1  0.0800 2.7540  #  Pt  (UFF)
2  0.0670 3.5200  #  rC  (OPLS-AA)
3  0.1700 3.0800  #  rOS (OPLS-AA)
4  0.0300 2.5000  #  rHS (OPLS-AA) - carbon-bound H
5  0.0000 0.0000  #  rHS (OPLS-AA) - hydroxyl H
6  0.1521 3.1507  #  rOW (TIP3P/CHARMM)
7  0.0460 0.4000  #  rHW (TIP3P/CHARMM)

 Bond Coeffs # harmonic

1 450 0.9572      # TIP3P/CHARMM Bond Parameters for H2O

 Angle Coeffs # harmonic

1 55 104.52       # TIP3P/CHARMM Angle Parameters for H2O  

 Masses

1  195.0840  #  Pt  (UFF)
2   12.0107  #  rC  (OPLS-AA)
3   15.9994  #  rOS (OPLS-AA)
4    1.0080  #  rHS (OPLS-AA) - carbon-bound H
5    1.0080  #  rHS (OPLS-AA) - hydroxyl H
6   15.9994  #  rOW (TIP3P/CHARMM)
7    1.0080  #  rHW (TIP3P/CHARMM)

 Atoms # full

1 1 1 0.000000 5.328415 3.356032 0.000000 # Pt 
2 1 1 0.000000 3.925773 0.926571 0.000000 # Pt 
3 1 1 0.000000 6.731066 5.785492 0.000000 # Pt 
4 1 1 0.000000 8.133721 3.356032 0.000000 # Pt 
5 1 1 0.000000 6.731071 0.926571 0.000000 # Pt 
6 1 1 0.000000 9.536372 5.785492 0.000000 # Pt 
7 1 1 0.000000 2.523118 3.356032 0.000000 # Pt 
8 1 1 0.000000 1.120468 0.926571 0.000000 # Pt 
9 1 1 0.000000 3.925769 5.785492 0.000000 # Pt 
10 1 1 0.000000 5.328413 1.736390 2.290519 # Pt 
11 1 1 0.000000 8.133715 6.595311 2.290519 # Pt 
12 1 1 0.000000 6.731062 4.165847 2.290519 # Pt 
13 1 1 0.000000 8.133719 1.736390 2.290519 # Pt 
14 1 1 0.000000 10.939021 6.595311 2.290519 # Pt 
15 1 1 0.000000 9.536367 4.165847 2.290519 # Pt 
16 1 1 0.000000 2.523116 1.736390 2.290519 # Pt 
17 1 1 0.000000 5.328418 6.595311 2.290519 # Pt 
18 1 1 0.000000 3.925765 4.165847 2.290519 # Pt 
19 1 1 0.000000 6.731068 2.546209 4.581031 # Pt 
20 1 1 0.000000 5.328418 0.116753 4.581031 # Pt 
21 1 1 0.000000 8.133717 4.975667 4.581031 # Pt 
22 1 1 0.000000 9.536367 2.546209 4.581031 # Pt 
23 1 1 0.000000 8.133719 0.116753 4.581031 # Pt 
24 1 1 0.000000 10.939016 4.975667 4.581031 # Pt 
25 1 1 0.000000 3.925773 2.546209 4.581031 # Pt 
26 1 1 0.000000 2.523125 0.116753 4.581031 # Pt 
27 1 1 0.000000 5.328422 4.975667 4.581031 # Pt 
28 1 2 0.200000 8.172079 0.116461 6.747427 # rC 
29 1 3 -0.660000 0.903607 0.635095 7.271680 # rOS 
30 1 6 -0.834000 3.075880 3.148148 7.349713 # rOW 
31 1 6 -0.834000 4.304852 2.819699 9.923337 # rOW 
32 1 6 -0.834000 4.547694 0.091928 7.913026 # rOW 
33 1 6 -0.834000 9.793836 4.208853 10.477613 # rOW 
34 1 6 -0.834000 6.689390 2.233083 8.210168 # rOW 
35 1 6 -0.834000 8.070279 4.693651 12.695027 # rOW 
36 1 6 -0.834000 7.474485 4.987338 8.750525 # rOW 
37 1 6 -0.834000 9.043138 1.169355 10.303275 # rOW 
38 1 6 -0.834000 8.184955 2.574756 14.709057 # rOW 
39 1 6 -0.834000 2.520411 3.156569 13.624654 # rOW 
40 1 6 -0.834000 3.260233 0.209079 11.301190 # rOW 
41 1 6 -0.834000 4.669005 5.589093 13.648238 # rOW 
42 1 6 -0.834000 10.251763 7.194067 10.451439 # rOW 
43 1 6 -0.834000 5.015222 3.095707 15.754364 # rOW 
44 1 6 -0.834000 3.671015 5.235381 17.355682 # rOW 
45 1 6 -0.834000 8.092028 3.566425 17.379557 # rOW 
46 1 6 -0.834000 6.220717 0.022989 15.921465 # rOW 
47 1 6 -0.834000 9.931231 6.933086 18.963055 # rOW 
48 1 6 -0.834000 7.542263 7.039433 17.361731 # rOW 
49 1 6 -0.834000 5.051178 3.591093 19.397156 # rOW 
50 1 6 -0.834000 1.796439 2.239369 18.950556 # rOW 
51 1 6 -0.834000 4.739245 7.118770 19.942228 # rOW 
52 1 6 -0.834000 0.663595 0.536512 16.604530 # rOW 
53 1 6 -0.834000 5.215016 1.195380 13.153296 # rOW 
54 1 4 0.030000 7.248695 0.635335 7.048044 # rHS 
55 1 4 0.030000 3.931530 6.312493 6.889102 # rHS
56 1 5 0.400000 9.185901 1.470379 7.816216 # rHS 
57 1 7 0.417000 3.633904 2.481468 7.750187 # rHW 
58 1 7 0.417000 2.709448 2.720922 6.575480 # rHW 
59 1 7 0.417000 4.518456 2.373482 9.103889 # rHW 
60 1 7 0.417000 3.625519 3.449917 9.683411 # rHW 
61 1 7 0.417000 9.124995 7.139045 7.063553 # rHW 
62 1 7 0.417000 3.930393 0.796178 7.715030 # rHW 
63 1 7 0.417000 10.217724 4.186066 9.619691 # rHW 
64 1 7 0.417000 10.291509 3.586393 11.007799 # rHW 
65 1 7 0.417000 7.570961 1.991565 8.494301 # rHW 
66 1 7 0.417000 6.670861 2.019183 7.277357 # rHW 
67 1 7 0.417000 8.421131 5.403923 12.157767 # rHW 
68 1 7 0.417000 8.261060 3.899011 12.196647 # rHW 
69 1 7 0.417000 7.510046 4.031757 8.793339 # rHW 
70 1 7 0.417000 7.433519 5.184278 7.814700 # rHW 
71 1 7 0.417000 8.957020 1.695790 9.508492 # rHW 
72 1 7 0.417000 1.134460 1.718516 10.901089 # rHW 
73 1 7 0.417000 8.032933 3.470821 15.009372 # rHW 
74 1 7 0.417000 8.103856 2.623864 13.756564 # rHW 
75 1 7 0.417000 10.439869 3.779853 14.155025 # rHW 
76 1 7 0.417000 1.869605 2.765825 13.041555 # rHW 
77 1 7 0.417000 2.996188 0.951011 10.757087 # rHW 
78 1 7 0.417000 7.538487 6.764410 10.689692 # rHW 
79 1 7 0.417000 4.813586 4.706431 13.989172 # rHW 
80 1 7 0.417000 3.722754 5.642551 13.514135 # rHW 
81 1 7 0.417000 10.431755 7.009979 9.529514 # rHW 
82 1 7 0.417000 10.015554 6.344623 10.824108 # rHW 
83 1 7 0.417000 5.678716 3.769103 15.604209 # rHW 
84 1 7 0.417000 4.764767 2.805756 14.877190 # rHW 
85 1 7 0.417000 3.710026 5.097614 16.409252 # rHW 
86 1 7 0.417000 3.971270 4.407719 17.731255 # rHW 
87 1 7 0.417000 8.177304 2.662882 17.075304 # rHW 
88 1 7 0.417000 7.712986 4.035246 16.636074 # rHW 
89 1 7 0.417000 5.649479 0.779600 15.789335 # rHW 
90 1 7 0.417000 10.463669 7.200096 16.871532 # rHW 
91 1 7 0.417000 6.486519 0.217035 18.884687 # rHW 
92 1 7 0.417000 9.774451 6.618864 18.072598 # rHW 
93 1 7 0.417000 7.509634 6.883804 18.305630 # rHW 
94 1 7 0.417000 7.388799 6.179101 16.971207 # rHW 
95 1 7 0.417000 4.165506 3.875042 19.170908 # rHW 
96 1 7 0.417000 5.451494 3.362342 18.558317 # rHW 
97 1 7 0.417000 1.748473 2.975150 18.340181 # rHW 
98 1 7 0.417000 2.494377 1.684206 18.602835 # rHW 
99 1 7 0.417000 5.003958 7.182256 19.024553 # rHW 
100 1 7 0.417000 8.055478 0.177922 19.959370 # rHW 
101 1 7 0.417000 8.600657 1.119694 17.193466 # rHW 
102 1 7 0.417000 5.387167 7.266627 17.186518 # rHW 
103 1 7 0.417000 5.881266 0.582524 12.842248 # rHW 
104 1 7 0.417000 4.757123 1.474787 12.360519 # rHW 

 Bonds 
 
1 1 30 57
2 1 30 58
3 1 31 59
4 1 31 60
5 1 32 61
6 1 32 62
7 1 33 63
8 1 33 64
9 1 34 65
10 1 34 66
11 1 35 67
12 1 35 68
13 1 36 69
14 1 36 70
15 1 37 71
16 1 37 72
17 1 38 73
18 1 38 74
19 1 39 75
20 1 39 76
21 1 40 77
22 1 40 78
23 1 41 79
24 1 41 80
25 1 42 81
26 1 42 82
27 1 43 83
28 1 43 84
29 1 44 85
30 1 44 86
31 1 45 87
32 1 45 88
33 1 46 89
34 1 46 90
35 1 47 91
36 1 47 92
37 1 48 93
38 1 48 94
39 1 49 95
40 1 49 96
41 1 50 97
42 1 50 98
43 1 51 99
44 1 51 100
45 1 52 101
46 1 52 102
47 1 53 103
48 1 53 104
 
 Angles 
 
1 1 57 30 58
2 1 59 31 60
3 1 61 32 62
4 1 63 33 64
5 1 65 34 66
6 1 67 35 68
7 1 69 36 70
8 1 71 37 72
9 1 73 38 74
10 1 75 39 76
11 1 77 40 78
12 1 79 41 80
13 1 81 42 82
14 1 83 43 84
15 1 85 44 86
16 1 87 45 88
17 1 89 46 90
18 1 91 47 92
19 1 93 48 94
20 1 95 49 96
21 1 97 50 98
22 1 99 51 100
23 1 101 52 102
24 1 103 53 104
